TITLE="new_volume.tec"
VARIABLES = "X", "Y", "Z", "U"
ZONE N = 55847, E = 0, DATAPACKING = POINT, ZONETYPE = FETETRAHEDRON
-0.416285 -0.27696 0 362.569
-0.424861 -0.263612 0.0833333 362.91
-0.424863 -0.263613 0 362.825
-0.416288 -0.276964 0 390.514
-0.424864 -0.263615 0.0833333 390.916
-0.424866 -0.263616 0 390.812
-0.416286 -0.276963 0.0833333 390.767
-0.416283 -0.276959 0.0833333 362.775
-0.416292 -0.276968 0 457.712
-0.424868 -0.263619 0.0833333 458.312
-0.42487 -0.26362 0 458.122
-0.41629 -0.276967 0.0833333 458.132
-0.416295 -0.276972 0 534.777
-0.424871 -0.263623 0.0833333 535.653
-0.424873 -0.263624 0 535.324
-0.416293 -0.27697 0.0833333 535.437
-0.416298 -0.276976 0 608.552
-0.424875 -0.263626 0.0833333 609.706
-0.424876 -0.263627 0 609.246
-0.416297 -0.276974 0.0833333 609.441
-0.416302 -0.276979 0 678.704
-0.424878 -0.26363 0.0833333 680.136
-0.42488 -0.263631 0 679.562
-0.4163 -0.276978 0.0833333 679.804
-0.416305 -0.276983 0 745.574
-0.424881 -0.263634 0.0833333 747.278
-0.424883 -0.263635 0 746.604
-0.416303 -0.276982 0.0833333 746.87
-0.416309 -0.276987 0 809.636
-0.424885 -0.263637 0.0833333 811.606
-0.424887 -0.263639 0 810.846
-0.416307 -0.276986 0.0833333 804.33
-0.416312 -0.276991 0 859.419
-0.424889 -0.263641 0.0833333 867.823
-0.42489 -0.263642 0 872.668
-0.41631 -0.27699 0.0833333 841.359
-0.416316 -0.276995 0 925.285
-0.424892 -0.263645 0.0833333 934.348
-0.424894 -0.263646 0 932.4
-0.416319 -0.276999 0 954.346
-0.424896 -0.263649 0.0833333 963.815
-0.424898 -0.26365 0 961.782
-0.433011 -0.249999 0.0833333 363.522
-0.433013 -0.25 0 363.466
-0.433014 -0.250002 0.0833333 391.671
-0.433016 -0.250003 0 391.612
-0.433018 -0.250006 0.0833333 459.469
-0.43302 -0.250007 0 459.356
-0.433021 -0.250009 0.0833333 537.31
-0.433023 -0.25001 0 537.087
-0.433025 -0.250013 0.0833333 611.856
-0.433027 -0.250014 0 611.527
-0.433028 -0.250016 0.0833333 682.78
-0.43303 -0.250017 0 682.361
-0.433032 -0.25002 0.0833333 750.406
-0.433034 -0.250021 0 749.91
-0.433035 -0.250023 0.0833333 815.213
-0.433037 -0.250024 0 814.65
-0.433039 -0.250027 0.0833333 877.584
-0.433041 -0.250028 0 876.964
-0.433043 -0.25003 0.0833333 937.85
-0.433045 -0.250032 0 937.181
-0.433046 -0.250034 0.0833333 988.033
-0.433048 -0.250035 0 991.282
-0.440725 -0.236134 0.0833333 364.078
-0.440727 -0.236136 0 364.062
-0.440728 -0.236138 0.0833333 392.368
-0.44073 -0.236139 0 392.367
-0.440732 -0.236141 0.0833333 460.537
-0.440734 -0.236142 0 460.521
-0.440735 -0.236144 0.0833333 538.821
-0.440737 -0.236145 0 538.734
-0.440739 -0.236148 0.0833333 613.806
-0.440741 -0.236149 0 613.645
-0.440743 -0.236151 0.0833333 685.177
-0.440745 -0.236152 0 684.958
-0.440746 -0.236154 0.0833333 753.246
-0.440748 -0.236155 0 752.979
-0.44075 -0.236157 0.0833333 818.491
-0.440752 -0.236159 0 818.186
-0.440753 -0.236161 0.0833333 881.297
-0.440756 -0.236162 0 880.961
-0.440757 -0.236164 0.0833333 941.993
-0.440759 -0.236165 0 941.632
-0.440761 -0.236168 0.0833333 1000.86
-0.440763 -0.236169 0 1000.48
-0.433052 -0.250039 0 1056.19
-0.440765 -0.236171 0.0833333 1058.15
-0.440767 -0.236172 0 1057.75
-0.43305 -0.250038 0.0833333 1057.34
-0.433056 -0.250043 0 1111.92
-0.440768 -0.236175 0.0833333 1114.06
-0.440771 -0.236176 0 1113.65
-0.433054 -0.250041 0.0833333 1107.07
-0.433059 -0.250046 0 1139.47
-0.440772 -0.236178 0.0833333 1161.29
-0.440774 -0.236179 0 1164.63
-0.433057 -0.250045 0.0833333 1139.33
-0.447995 -0.222032 0.0833333 364.608
-0.447997 -0.222033 0 364.624
-0.447998 -0.222035 0.0833333 393.045
-0.448001 -0.222036 0 393.091
-0.448002 -0.222038 0.0833333 461.579
-0.448004 -0.222039 0 461.644
-0.448006 -0.222041 0.0833333 540.276
-0.448008 -0.222042 0 540.304
-0.448009 -0.222045 0.0833333 615.665
-0.448011 -0.222046 0 615.647
-0.448013 -0.222048 0.0833333 687.453
-0.448015 -0.222049 0 687.403
-0.448017 -0.222051 0.0833333 755.939
-0.448019 -0.222052 0 755.864
-0.44802 -0.222054 0.0833333 821.597
-0.448023 -0.222055 0 821.507
-0.448024 -0.222057 0.0833333 884.811
-0.448026 -0.222058 0 884.711
-0.448028 -0.22206 0.0833333 945.91
-0.44803 -0.222061 0 945.806
-0.448032 -0.222063 0.0833333 1005.18
-0.448034 -0.222064 0 1005.08
-0.448036 -0.222067 0.0833333 1062.86
-0.448038 -0.222068 0 1062.76
-0.448039 -0.22207 0.0833333 1119.17
-0.448042 -0.222071 0 1119.07
-0.448043 -0.222073 0.0833333 1174.28
-0.448045 -0.222074 0 1174.19
-0.440778 -0.236183 0 1226.38
-0.448047 -0.222076 0.0833333 1228.35
-0.448049 -0.222078 0 1228.29
-0.440776 -0.236182 0.0833333 1227.24
-0.440782 -0.236186 0 1279.42
-0.448051 -0.22208 0.0833333 1281.54
-0.448053 -0.222081 0 1281.49
-0.44078 -0.236185 0.0833333 1280.32
-0.440786 -0.23619 0 1305.73
-0.448055 -0.222083 0.0833333 1329.22
-0.448058 -0.222084 0 1330.58
-0.440784 -0.236189 0.0833333 1326.22
-0.440812 -0.236213 0 1650.97
-0.448081 -0.222105 0.0833333 1645.3
-0.448083 -0.222106 0 1645.33
-0.440816 -0.236217 0 1675.56
-0.448086 -0.222109 0.0833333 1689.59
-0.448088 -0.22211 0 1687.73
-0.440821 -0.236222 0 1724.71
-0.448091 -0.222113 0.0833333 1739.22
-0.448093 -0.222114 0 1737.31
-0.440825 -0.236226 0 1773.81
-0.448095 -0.222117 0.0833333 1788.8
-0.448097 -0.222118 0 1786.84
-0.44083 -0.23623 0 1822.9
-0.4481 -0.222121 0.0833333 1833.57
-0.448102 -0.222122 0 1836.36
-0.440835 -0.236235 0 1872.04
-0.448105 -0.222125 0.0833333 1885.02
-0.448107 -0.222126 0 1885.93
-0.44084 -0.236239 0 1921.26
-0.44811 -0.222129 0.0833333 1934.65
-0.448112 -0.22213 0 1935.59
-0.440845 -0.236244 0 1970.62
-0.448115 -0.222134 0.0833333 1984.42
-0.448118 -0.222135 0 1985.38
-0.44085 -0.236249 0 1995.34
-0.448121 -0.222138 0.0833333 2009.34
-0.448123 -0.222139 0 2022.31
-0.454814 -0.207707 0.0833333 365.092
-0.454816 -0.207708 0 365.138
-0.454818 -0.207709 0.0833333 393.683
-0.45482 -0.20771 0 393.773
-0.454821 -0.207712 0.0833333 462.573
-0.454823 -0.207713 0 462.714
-0.454825 -0.207715 0.0833333 541.646
-0.454827 -0.207716 0 541.781
-0.454829 -0.207718 0.0833333 617.395
-0.454831 -0.207719 0 617.511
-0.454832 -0.207721 0.0833333 689.561
-0.454835 -0.207722 0 689.669
-0.454836 -0.207724 0.0833333 758.423
-0.454838 -0.207725 0 758.531
-0.45484 -0.207727 0.0833333 824.457
-0.454842 -0.207728 0 824.571
-0.454844 -0.20773 0.0833333 888.043
-0.454846 -0.207731 0 888.168
-0.454848 -0.207733 0.0833333 949.512
-0.45485 -0.207734 0 949.651
-0.454851 -0.207735 0.0833333 1009.15
-0.454854 -0.207736 0 1009.3
-0.454855 -0.207738 0.0833333 1067.19
-0.454857 -0.207739 0 1067.37
-0.454859 -0.207742 0.0833333 1123.86
-0.454861 -0.207743 0 1124.06
-0.454863 -0.207745 0.0833333 1179.33
-0.454865 -0.207746 0 1179.56
-0.454867 -0.207748 0.0833333 1233.76
-0.454869 -0.207749 0 1234.03
-0.454871 -0.207751 0.0833333 1287.31
-0.454874 -0.207752 0 1287.6
-0.454875 -0.207754 0.0833333 1340.09
-0.454878 -0.207755 0 1340.41
-0.448062 -0.222088 0 1390.49
-0.45488 -0.207757 0.0833333 1392.21
-0.454882 -0.207758 0 1392.57
-0.44806 -0.222087 0.0833333 1384.99
-0.448066 -0.222091 0 1441.94
-0.454884 -0.207761 0.0833333 1443.78
-0.454886 -0.207762 0 1444.18
-0.448064 -0.22209 0.0833333 1442.37
-0.44807 -0.222095 0 1492.93
-0.454888 -0.207764 0.0833333 1494.89
-0.45489 -0.207765 0 1495.33
-0.448068 -0.222094 0.0833333 1493.36
-0.448074 -0.222099 0 1543.54
-0.454893 -0.207767 0.0833333 1545.61
-0.454895 -0.207768 0 1546.1
-0.448072 -0.222098 0.0833333 1543.98
-0.448079 -0.222102 0 1593.85
-0.454897 -0.207771 0.0833333 1596.04
-0.454899 -0.207772 0 1596.57
-0.448077 -0.222101 0.0833333 1594.29
-0.454902 -0.207774 0.0833333 1646.24
-0.454904 -0.207775 0 1646.81
-0.454906 -0.207778 0.0833333 1696.27
-0.454909 -0.207779 0 1696.89
-0.454911 -0.207782 0.0833333 1746.19
-0.454913 -0.207783 0 1746.86
-0.454916 -0.207785 0.0833333 1796.06
-0.454918 -0.207786 0 1796.78
-0.454921 -0.207789 0.0833333 1845.92
-0.454923 -0.20779 0 1846.7
-0.454926 -0.207793 0.0833333 1895.84
-0.454928 -0.207794 0 1896.68
-0.454931 -0.207797 0.0833333 1945.86
-0.454933 -0.207798 0 1946.75
-0.454937 -0.207801 0.0833333 1996.01
-0.454939 -0.207802 0 1996.96
-0.454942 -0.207805 0.0833333 2037.82
-0.454944 -0.207806 0 2047.36
-0.448128 -0.222144 0 2058.27
-0.454948 -0.20781 0.0833333 2071.22
-0.45495 -0.207811 0 2084.82
-0.461175 -0.193172 0.0833333 365.531
-0.461177 -0.193173 0 365.613
-0.461179 -0.193174 0.0833333 394.283
-0.461181 -0.193175 0 394.426
-0.461182 -0.193177 0.0833333 463.523
-0.461185 -0.193178 0 463.755
-0.461186 -0.19318 0.0833333 542.937
-0.461188 -0.193181 0 543.201
-0.46119 -0.193182 0.0833333 619.007
-0.461192 -0.193183 0 619.285
-0.461194 -0.193185 0.0833333 691.511
-0.461196 -0.193186 0 691.81
-0.461198 -0.193188 0.0833333 760.714
-0.4612 -0.193189 0 761.041
-0.461201 -0.19319 0.0833333 827.088
-0.461204 -0.193191 0 827.446
-0.461205 -0.193193 0.0833333 891.012
-0.461207 -0.193194 0 891.405
-0.461209 -0.193196 0.0833333 952.817
-0.461211 -0.193197 0 953.247
-0.461213 -0.193198 0.0833333 1012.79
-0.461215 -0.193199 0 1013.26
-0.461217 -0.193201 0.0833333 1071.16
-0.461219 -0.193202 0 1071.68
-0.461221 -0.193204 0.0833333 1128.16
-0.461223 -0.193205 0 1128.72
-0.461225 -0.193207 0.0833333 1183.96
-0.461227 -0.193208 0 1184.57
-0.461229 -0.19321 0.0833333 1238.73
-0.461231 -0.193211 0 1239.38
-0.461233 -0.193213 0.0833333 1292.6
-0.461236 -0.193214 0 1293.31
-0.461238 -0.193216 0.0833333 1345.71
-0.46124 -0.193217 0 1346.47
-0.461242 -0.193219 0.0833333 1398.17
-0.461244 -0.19322 0 1398.97
-0.461246 -0.193222 0.0833333 1450.07
-0.461248 -0.193223 0 1450.93
-0.461251 -0.193225 0.0833333 1501.51
-0.461253 -0.193226 0 1502.43
-0.461255 -0.193228 0.0833333 1552.58
-0.461257 -0.193229 0 1553.56
-0.46126 -0.193231 0.0833333 1603.35
-0.461262 -0.193232 0 1604.39
-0.461264 -0.193235 0.0833333 1653.89
-0.461267 -0.193236 0 1654.99
-0.461269 -0.193238 0.0833333 1704.27
-0.461271 -0.193239 0 1705.44
-0.461274 -0.193241 0.0833333 1754.54
-0.461276 -0.193242 0 1755.78
-0.461279 -0.193245 0.0833333 1804.77
-0.461281 -0.193246 0 1806.07
-0.461284 -0.193248 0.0833333 1855
-0.461286 -0.193249 0 1856.37
-0.461289 -0.193252 0.0833333 1905.29
-0.461291 -0.193253 0 1906.73
-0.461294 -0.193256 0.0833333 1955.67
-0.461296 -0.193257 0 1957.19
-0.4613 -0.193259 0.0833333 2006.2
-0.461302 -0.19326 0 2007.8
-0.461305 -0.193263 0.0833333 2056.92
-0.461307 -0.193264 0 2058.59
-0.461311 -0.193267 0.0833333 2103.72
-0.461313 -0.193268 0 2109.62
-0.454955 -0.207815 0 2146.99
-0.461316 -0.193271 0.0833333 2161.53
-0.461319 -0.193272 0 2160.91
-0.454961 -0.20782 0 2198.19
-0.461322 -0.193276 0.0833333 2213.12
-0.461325 -0.193276 0 2212.5
-0.454967 -0.207824 0 2249.72
-0.461328 -0.19328 0.0833333 2265.06
-0.461331 -0.193281 0 2264.43
-0.454973 -0.207829 0 2275.57
-0.461335 -0.193284 0.0833333 2309.92
-0.461337 -0.193285 0 2314.54
-0.467072 -0.178442 0.0833333 365.957
-0.467074 -0.178443 0 366.095
-0.467075 -0.178445 0.0833333 394.892
-0.467078 -0.178446 0 395.117
-0.467079 -0.178447 0.0833333 464.5
-0.467082 -0.178448 0 464.871
-0.467083 -0.17845 0.0833333 544.249
-0.467085 -0.17845 0 544.709
-0.467087 -0.178452 0.0833333 620.63
-0.467089 -0.178453 0 621.154
-0.467091 -0.178454 0.0833333 693.458
-0.467093 -0.178455 0 694.049
-0.467095 -0.178457 0.0833333 762.986
-0.467097 -0.178458 0 763.646
-0.467098 -0.178459 0.0833333 829.685
-0.467101 -0.17846 0 830.415
-0.467102 -0.178462 0.0833333 893.933
-0.467105 -0.178463 0 894.734
-0.467106 -0.178464 0.0833333 956.059
-0.467109 -0.178465 0 956.933
-0.46711 -0.178467 0.0833333 1016.35
-0.467113 -0.178468 0 1017.3
-0.467114 -0.17847 0.0833333 1075.04
-0.467117 -0.17847 0 1076.07
-0.467118 -0.178472 0.0833333 1132.36
-0.467121 -0.178473 0 1133.46
-0.467123 -0.178475 0.0833333 1188.48
-0.467125 -0.178476 0 1189.65
-0.467127 -0.178477 0.0833333 1243.56
-0.467129 -0.178478 0 1244.81
-0.467131 -0.17848 0.0833333 1297.75
-0.467133 -0.178481 0 1299.08
-0.467135 -0.178483 0.0833333 1351.18
-0.467137 -0.178484 0 1352.58
-0.467139 -0.178486 0.0833333 1403.96
-0.467142 -0.178487 0 1405.44
-0.467144 -0.178488 0.0833333 1456.18
-0.467146 -0.178489 0 1457.74
-0.467148 -0.178491 0.0833333 1507.95
-0.467151 -0.178492 0 1509.59
-0.467153 -0.178494 0.0833333 1559.34
-0.467155 -0.178495 0 1561.07
-0.467158 -0.178497 0.0833333 1610.44
-0.46716 -0.178498 0 1612.26
-0.467162 -0.1785 0.0833333 1661.31
-0.467165 -0.178501 0 1663.22
-0.467167 -0.178503 0.0833333 1712.03
-0.467169 -0.178504 0 1714.02
-0.467172 -0.178506 0.0833333 1762.64
-0.467174 -0.178507 0 1764.72
-0.467177 -0.17851 0.0833333 1813.21
-0.467179 -0.178511 0 1815.38
-0.467182 -0.178513 0.0833333 1863.79
-0.467184 -0.178514 0 1866.06
-0.467187 -0.178516 0.0833333 1914.43
-0.46719 -0.178517 0 1916.79
-0.467193 -0.17852 0.0833333 1965.18
-0.467195 -0.178521 0 1967.63
-0.467198 -0.178523 0.0833333 2016.08
-0.4672 -0.178524 0 2018.63
-0.467204 -0.178527 0.0833333 2067.17
-0.467206 -0.178528 0 2069.82
-0.467209 -0.17853 0.0833333 2118.49
-0.467212 -0.178531 0 2121.25
-0.467215 -0.178534 0.0833333 2170.08
-0.467218 -0.178535 0 2172.94
-0.467221 -0.178538 0.0833333 2221.98
-0.467224 -0.178539 0 2224.95
-0.467227 -0.178542 0.0833333 2274.22
-0.46723 -0.178543 0 2277.3
-0.467234 -0.178546 0.0833333 2326.83
-0.467236 -0.178547 0 2330.03
-0.461343 -0.19329 0 2350.62
-0.46724 -0.17855 0.0833333 2353.24
-0.467242 -0.178551 0 2369.76
-0.461341 -0.193289 0.0833333 2347.55
-0.472498 -0.163533 0.0833333 366.426
-0.4725 -0.163534 0 366.633
-0.472502 -0.163535 0.0833333 395.588
-0.472504 -0.163536 0 395.914
-0.472506 -0.163538 0.0833333 465.637
-0.472508 -0.163538 0 466.179
-0.47251 -0.16354 0.0833333 545.773
-0.472512 -0.163541 0 546.477
-0.472514 -0.163542 0.0833333 622.504
-0.472516 -0.163543 0 623.333
-0.472517 -0.163544 0.0833333 695.684
-0.47252 -0.163545 0 696.635
-0.472521 -0.163547 0.0833333 765.563
-0.472524 -0.163547 0 766.635
-0.472525 -0.163549 0.0833333 832.609
-0.472528 -0.16355 0 833.799
-0.472529 -0.163551 0.0833333 897.201
-0.472532 -0.163552 0 898.507
-0.472533 -0.163553 0.0833333 959.667
-0.472536 -0.163554 0 961.088
-0.472537 -0.163556 0.0833333 1020.29
-0.47254 -0.163557 0 1021.83
-0.472541 -0.163558 0.0833333 1079.32
-0.472544 -0.163559 0 1080.97
-0.472545 -0.163561 0.0833333 1136.97
-0.472548 -0.163561 0 1138.73
-0.47255 -0.163563 0.0833333 1193.42
-0.472552 -0.163564 0 1195.29
-0.472554 -0.163565 0.0833333 1248.83
-0.472556 -0.163566 0 1250.81
-0.472558 -0.163568 0.0833333 1303.35
-0.47256 -0.163569 0 1305.44
-0.472562 -0.16357 0.0833333 1357.11
-0.472565 -0.163571 0 1359.31
-0.472567 -0.163573 0.0833333 1410.21
-0.472569 -0.163574 0 1412.52
-0.472571 -0.163575 0.0833333 1462.77
-0.472574 -0.163576 0 1465.19
-0.472576 -0.163578 0.0833333 1514.87
-0.472578 -0.163579 0 1517.4
-0.47258 -0.163581 0.0833333 1566.6
-0.472583 -0.163582 0 1569.25
-0.472585 -0.163583 0.0833333 1618.03
-0.472587 -0.163584 0 1620.79
-0.47259 -0.163586 0.0833333 1669.24
-0.472592 -0.163587 0 1672.12
-0.472595 -0.163589 0.0833333 1720.3
-0.472597 -0.16359 0 1723.29
-0.4726 -0.163592 0.0833333 1771.26
-0.472602 -0.163593 0 1774.37
-0.472605 -0.163595 0.0833333 1822.18
-0.472607 -0.163596 0 1825.41
-0.47261 -0.163598 0.0833333 1873.11
-0.472612 -0.163599 0 1876.46
-0.472615 -0.163601 0.0833333 1924.11
-0.472618 -0.163602 0 1927.58
-0.472621 -0.163604 0.0833333 1975.22
-0.472623 -0.163605 0 1978.82
-0.472626 -0.163607 0.0833333 2026.49
-0.472629 -0.163608 0 2030.21
-0.472632 -0.16361 0.0833333 2077.95
-0.472634 -0.163611 0 2081.8
-0.472638 -0.163614 0.0833333 2129.65
-0.47264 -0.163615 0 2133.63
-0.472644 -0.163617 0.0833333 2181.63
-0.472646 -0.163618 0 2185.74
-0.47265 -0.163621 0.0833333 2233.92
-0.472652 -0.163621 0 2238.17
-0.472656 -0.163624 0.0833333 2286.56
-0.472658 -0.163625 0 2290.94
-0.472662 -0.163628 0.0833333 2339.58
-0.472665 -0.163629 0 2344.1
-0.472669 -0.163632 0.0833333 2388.93
-0.472671 -0.163633 0 2397.68
-0.467249 -0.178555 0 2436.52
-0.472676 -0.163636 0.0833333 2450.13
-0.472678 -0.163636 0 2451.7
-0.467256 -0.17856 0 2463.46
-0.472682 -0.16364 0.0833333 2502.7
-0.472685 -0.16364 0 2503.89
-0.477449 -0.148459 0.0833333 366.929
-0.477451 -0.14846 0 367.202
-0.477453 -0.148461 0.0833333 396.352
-0.477455 -0.148462 0 396.771
-0.477457 -0.148463 0.0833333 466.91
-0.477459 -0.148464 0 467.611
-0.47746 -0.148466 0.0833333 547.486
-0.477463 -0.148466 0 548.419
-0.477464 -0.148468 0.0833333 624.595
-0.477467 -0.148468 0 625.71
-0.477468 -0.14847 0.0833333 698.148
-0.477471 -0.14847 0 699.438
-0.477472 -0.148472 0.0833333 768.399
-0.477475 -0.148472 0 769.858
-0.477476 -0.148474 0.0833333 835.811
-0.477479 -0.148474 0 837.434
-0.47748 -0.148476 0.0833333 900.762
-0.477483 -0.148476 0 902.544
-0.477484 -0.148478 0.0833333 963.583
-0.477487 -0.148479 0 965.52
-0.477488 -0.14848 0.0833333 1024.56
-0.477491 -0.148481 0 1026.65
-0.477493 -0.148482 0.0833333 1083.93
-0.477495 -0.148483 0 1086.17
-0.477497 -0.148484 0.0833333 1141.92
-0.477499 -0.148485 0 1144.31
-0.477501 -0.148486 0.0833333 1198.71
-0.477503 -0.148487 0 1201.24
-0.477505 -0.148489 0.0833333 1254.46
-0.477508 -0.148489 0 1257.14
-0.477509 -0.148491 0.0833333 1309.32
-0.477512 -0.148492 0 1312.14
-0.477514 -0.148493 0.0833333 1363.41
-0.477516 -0.148494 0 1366.37
-0.477518 -0.148495 0.0833333 1416.85
-0.477521 -0.148496 0 1419.95
-0.477523 -0.148498 0.0833333 1469.74
-0.477525 -0.148498 0 1472.98
-0.477527 -0.1485 0.0833333 1522.18
-0.47753 -0.148501 0 1525.56
-0.477532 -0.148503 0.0833333 1574.25
-0.477534 -0.148503 0 1577.77
-0.477537 -0.148505 0.0833333 1626.02
-0.477539 -0.148506 0 1629.69
-0.477542 -0.148507 0.0833333 1677.57
-0.477544 -0.148508 0 1681.38
-0.477547 -0.14851 0.0833333 1728.97
-0.477549 -0.148511 0 1732.93
-0.477552 -0.148513 0.0833333 1780.28
-0.477554 -0.148513 0 1784.38
-0.477557 -0.148515 0.0833333 1831.55
-0.477559 -0.148516 0 1835.8
-0.477562 -0.148518 0.0833333 1882.84
-0.477564 -0.148519 0 1887.23
-0.477567 -0.148521 0.0833333 1934.2
-0.47757 -0.148521 0 1938.74
-0.477573 -0.148524 0.0833333 1985.67
-0.477575 -0.148524 0 1990.36
-0.477578 -0.148526 0.0833333 2037.31
-0.477581 -0.148527 0 2042.15
-0.477584 -0.148529 0.0833333 2089.14
-0.477587 -0.14853 0 2094.14
-0.47759 -0.148532 0.0833333 2141.22
-0.477592 -0.148533 0 2146.38
-0.477596 -0.148536 0.0833333 2193.58
-0.477598 -0.148536 0 2198.9
-0.477602 -0.148539 0.0833333 2246.27
-0.477605 -0.148539 0 2251.74
-0.477608 -0.148542 0.0833333 2299.3
-0.477611 -0.148543 0 2304.94
-0.477615 -0.148545 0.0833333 2352.72
-0.477617 -0.148546 0 2358.52
-0.477622 -0.148549 0.0833333 2406.57
-0.477624 -0.148549 0 2412.54
-0.477628 -0.148552 0.0833333 2460.87
-0.477631 -0.148553 0 2467
-0.477635 -0.148556 0.0833333 2515.65
-0.477638 -0.148557 0 2521.96
-0.472692 -0.163644 0 2569.2
-0.477642 -0.14856 0.0833333 2570.94
-0.477645 -0.14856 0 2577.43
-0.47269 -0.163644 0.0833333 2564.32
-0.472699 -0.163649 0 2596.93
-0.47765 -0.148563 0.0833333 2598.72
-0.477652 -0.148564 0 2605.3
-0.472697 -0.163648 0.0833333 2591.99
-0.481919 -0.133236 0.0833333 367.458
-0.481921 -0.133237 0 367.801
-0.481923 -0.133238 0.0833333 397.163
-0.481925 -0.133239 0 397.68
-0.481927 -0.13324 0.0833333 468.28
-0.481929 -0.133241 0 469.146
-0.481931 -0.133242 0.0833333 549.335
-0.481933 -0.133242 0 550.503
-0.481934 -0.133243 0.0833333 626.841
-0.481937 -0.133244 0 628.253
-0.481938 -0.133245 0.0833333 700.783
-0.481941 -0.133246 0 702.426
-0.481942 -0.133247 0.0833333 771.421
-0.481945 -0.133248 0 773.285
-0.481946 -0.133249 0.0833333 839.211
-0.481949 -0.13325 0 841.288
-0.481951 -0.133251 0.0833333 904.533
-0.481953 -0.133252 0 906.814
-0.481955 -0.133253 0.0833333 967.718
-0.481957 -0.133253 0 970.197
-0.481959 -0.133255 0.0833333 1029.05
-0.481961 -0.133255 0 1031.72
-0.481963 -0.133257 0.0833333 1088.78
-0.481965 -0.133257 0 1091.64
-0.481967 -0.133258 0.0833333 1147.12
-0.48197 -0.133259 0 1150.16
-0.481971 -0.13326 0.0833333 1204.25
-0.481974 -0.133261 0 1207.48
-0.481976 -0.133262 0.0833333 1260.35
-0.481978 -0.133263 0 1263.75
-0.48198 -0.133264 0.0833333 1315.54
-0.481982 -0.133265 0 1319.13
-0.481984 -0.133266 0.0833333 1369.98
-0.481987 -0.133267 0 1373.74
-0.481989 -0.133268 0.0833333 1423.75
-0.481991 -0.133269 0 1427.69
-0.481994 -0.133271 0.0833333 1476.99
-0.481996 -0.133271 0 1481.09
-0.481998 -0.133273 0.0833333 1529.76
-0.482001 -0.133273 0 1534.04
-0.482003 -0.133275 0.0833333 1582.17
-0.482005 -0.133275 0 1586.62
-0.482008 -0.133277 0.0833333 1634.29
-0.48201 -0.133278 0 1638.91
-0.482013 -0.133279 0.0833333 1686.18
-0.482015 -0.13328 0 1690.98
-0.482018 -0.133282 0.0833333 1737.93
-0.48202 -0.133282 0 1742.9
-0.482023 -0.133284 0.0833333 1789.59
-0.482025 -0.133285 0 1794.73
-0.482028 -0.133286 0.0833333 1841.21
-0.48203 -0.133287 0 1846.53
-0.482033 -0.133289 0.0833333 1892.85
-0.482036 -0.133289 0 1898.35
-0.482039 -0.133291 0.0833333 1944.57
-0.482041 -0.133292 0 1950.25
-0.482044 -0.133294 0.0833333 1996.41
-0.482047 -0.133294 0 2002.26
-0.48205 -0.133296 0.0833333 2048.41
-0.482052 -0.133297 0 2054.44
-0.482056 -0.133299 0.0833333 2100.62
-0.482058 -0.1333 0 2106.84
-0.482061 -0.133302 0.0833333 2153.07
-0.482064 -0.133302 0 2159.48
-0.482068 -0.133304 0.0833333 2205.82
-0.48207 -0.133305 0 2212.41
-0.482074 -0.133307 0.0833333 2258.89
-0.482076 -0.133308 0 2265.67
-0.48208 -0.13331 0.0833333 2312.32
-0.482083 -0.133311 0 2319.29
-0.482087 -0.133313 0.0833333 2366.14
-0.482089 -0.133314 0 2373.3
-0.482093 -0.133316 0.0833333 2420.39
-0.482096 -0.133317 0 2427.75
-0.4821 -0.133319 0.0833333 2475.1
-0.482103 -0.13332 0 2482.66
-0.482107 -0.133323 0.0833333 2530.3
-0.48211 -0.133323 0 2538.06
-0.482114 -0.133326 0.0833333 2586.02
-0.482117 -0.133327 0 2593.99
-0.482122 -0.133329 0.0833333 2614.02
-0.482124 -0.13333 0 2622.09
-0.485903 -0.117879 0.0833333 368.043
-0.485906 -0.117879 0 368.449
-0.485907 -0.11788 0.0833333 398.062
-0.48591 -0.117881 0 398.667
-0.485911 -0.117882 0.0833333 469.804
-0.485914 -0.117883 0 470.819
-0.485915 -0.117884 0.0833333 551.399
-0.485918 -0.117884 0 552.779
-0.485919 -0.117885 0.0833333 629.349
-0.485922 -0.117886 0 631.029
-0.485923 -0.117887 0.0833333 703.723
-0.485926 -0.117887 0 705.687
-0.485927 -0.117888 0.0833333 774.784
-0.48593 -0.117889 0 777.018
-0.485931 -0.11789 0.0833333 842.987
-0.485934 -0.117891 0 845.477
-0.485936 -0.117892 0.0833333 908.711
-0.485938 -0.117892 0 911.447
-0.48594 -0.117893 0.0833333 972.288
-0.485942 -0.117894 0 975.262
-0.485944 -0.117895 0.0833333 1034.01
-0.485946 -0.117896 0 1037.21
-0.485948 -0.117897 0.0833333 1094.11
-0.48595 -0.117897 0 1097.54
-0.485952 -0.117898 0.0833333 1152.82
-0.485955 -0.117899 0 1156.47
-0.485957 -0.1179 0.0833333 1210.33
-0.485959 -0.117901 0 1214.19
-0.485961 -0.117902 0.0833333 1266.78
-0.485963 -0.117903 0 1270.86
-0.485965 -0.117904 0.0833333 1322.34
-0.485968 -0.117904 0 1326.63
-0.48597 -0.117905 0.0833333 1377.13
-0.485972 -0.117906 0 1381.62
-0.485974 -0.117907 0.0833333 1431.27
-0.485977 -0.117908 0 1435.96
-0.485979 -0.117909 0.0833333 1484.86
-0.485981 -0.11791 0 1489.76
-0.485984 -0.117911 0.0833333 1537.99
-0.485986 -0.117912 0 1543.09
-0.485988 -0.117913 0.0833333 1590.76
-0.485991 -0.117914 0 1596.06
-0.485993 -0.117915 0.0833333 1643.23
-0.485996 -0.117915 0 1648.73
-0.485998 -0.117917 0.0833333 1695.49
-0.486001 -0.117917 0 1701.19
-0.486003 -0.117919 0.0833333 1747.59
-0.486006 -0.117919 0 1753.5
-0.486008 -0.117921 0.0833333 1799.61
-0.486011 -0.117921 0 1805.72
-0.486014 -0.117923 0.0833333 1851.6
-0.486016 -0.117924 0 1857.91
-0.486019 -0.117925 0.0833333 1903.62
-0.486021 -0.117926 0 1910.13
-0.486024 -0.117927 0.0833333 1955.7
-0.486027 -0.117928 0 1962.42
-0.48603 -0.11793 0.0833333 2007.92
-0.486032 -0.11793 0 2014.83
-0.486036 -0.117932 0.0833333 2060.3
-0.486038 -0.117932 0 2067.42
-0.486042 -0.117934 0.0833333 2112.89
-0.486044 -0.117935 0 2120.22
-0.486047 -0.117937 0.0833333 2165.74
-0.48605 -0.117937 0 2173.28
-0.486054 -0.117939 0.0833333 2218.87
-0.486056 -0.11794 0 2226.63
-0.48606 -0.117942 0.0833333 2272.34
-0.486062 -0.117942 0 2280.31
-0.486066 -0.117944 0.0833333 2326.18
-0.486069 -0.117945 0 2334.36
-0.486073 -0.117947 0.0833333 2380.41
-0.486075 -0.117947 0 2388.82
-0.48608 -0.117949 0.0833333 2435.08
-0.486082 -0.11795 0 2443.71
-0.486087 -0.117952 0.0833333 2490.21
-0.486089 -0.117953 0 2499.06
-0.486094 -0.117955 0.0833333 2545.84
-0.486096 -0.117956 0 2554.92
-0.486101 -0.117958 0.0833333 2602
-0.486103 -0.117959 0 2611.31
-0.486109 -0.117961 0.0833333 2651.65
-0.486111 -0.117962 0 2665.53
-0.489399 -0.102403 0.0833333 368.707
-0.489401 -0.102403 0 369.14
-0.489403 -0.102404 0.0833333 399.078
-0.489405 -0.102405 0 399.717
-0.489407 -0.102406 0.0833333 471.53
-0.489409 -0.102406 0 472.6
-0.489411 -0.102407 0.0833333 553.748
-0.489413 -0.102407 0 555.211
-0.489415 -0.102408 0.0833333 632.213
-0.489417 -0.102409 0 634.001
-0.489419 -0.10241 0.0833333 707.081
-0.489421 -0.10241 0 709.175
-0.489423 -0.102411 0.0833333 778.622
-0.489425 -0.102412 0 781.006
-0.489427 -0.102413 0.0833333 847.288
-0.48943 -0.102413 0 849.948
-0.489431 -0.102414 0.0833333 913.46
-0.489434 -0.102415 0 916.384
-0.489435 -0.102415 0.0833333 977.473
-0.489438 -0.102416 0 980.652
-0.48944 -0.102417 0.0833333 1039.62
-0.489442 -0.102417 0 1043.04
-0.489444 -0.102418 0.0833333 1100.14
-0.489446 -0.102419 0 1103.8
-0.489448 -0.10242 0.0833333 1159.26
-0.489451 -0.10242 0 1163.16
-0.489452 -0.102421 0.0833333 1217.16
-0.489455 -0.102422 0 1221.29
-0.489457 -0.102423 0.0833333 1274.02
-0.489459 -0.102423 0 1278.37
-0.489461 -0.102424 0.0833333 1329.97
-0.489464 -0.102425 0 1334.54
-0.489466 -0.102426 0.0833333 1385.15
-0.489468 -0.102426 0 1389.94
-0.48947 -0.102427 0.0833333 1439.68
-0.489473 -0.102428 0 1444.69
-0.489475 -0.102429 0.0833333 1493.65
-0.489477 -0.10243 0 1498.87
-0.48948 -0.102431 0.0833333 1547.17
-0.489482 -0.102431 0 1552.61
-0.489484 -0.102432 0.0833333 1600.32
-0.489487 -0.102433 0 1605.97
-0.489489 -0.102434 0.0833333 1653.18
-0.489492 -0.102435 0 1659.04
-0.489494 -0.102436 0.0833333 1705.82
-0.489497 -0.102436 0 1711.89
-0.489499 -0.102437 0.0833333 1758.32
-0.489502 -0.102438 0 1764.6
-0.489505 -0.102439 0.0833333 1810.73
-0.489507 -0.10244 0 1817.22
-0.48951 -0.102441 0.0833333 1863.11
-0.489512 -0.102442 0 1869.81
-0.489515 -0.102443 0.0833333 1915.51
-0.489518 -0.102443 0 1922.43
-0.489521 -0.102445 0.0833333 1968
-0.489523 -0.102445 0 1975.13
-0.489526 -0.102447 0.0833333 2020.61
-0.489529 -0.102447 0 2027.95
-0.489532 -0.102449 0.0833333 2073.39
-0.489535 -0.102449 0 2080.95
-0.489538 -0.102451 0.0833333 2126.39
-0.489541 -0.102451 0 2134.17
-0.489544 -0.102453 0.0833333 2179.65
-0.489547 -0.102453 0 2187.65
-0.48955 -0.102455 0.0833333 2233.21
-0.489553 -0.102455 0 2241.42
-0.489557 -0.102457 0.0833333 2287.1
-0.489559 -0.102458 0 2295.54
-0.489563 -0.102459 0.0833333 2341.36
-0.489566 -0.10246 0 2350.02
-0.48957 -0.102462 0.0833333 2396.02
-0.489572 -0.102462 0 2404.91
-0.489577 -0.102464 0.0833333 2451.13
-0.489579 -0.102465 0 2460.25
-0.489584 -0.102466 0.0833333 2506.71
-0.489586 -0.102467 0 2516.06
-0.489591 -0.102469 0.0833333 2562.79
-0.489593 -0.102469 0 2572.38
-0.489598 -0.102471 0.0833333 2619.4
-0.489601 -0.102472 0 2629.23
-0.489606 -0.102474 0.0833333 2676.58
-0.489608 -0.102475 0 2686.65
-0.486119 -0.117965 0 2733.37
-0.489613 -0.102477 0.0833333 2734.35
-0.489616 -0.102477 0 2744.66
-0.486116 -0.117964 0.0833333 2723.41
-0.486127 -0.117968 0 2791.7
-0.489621 -0.102479 0.0833333 2792.74
-0.489624 -0.10248 0 2803.3
-0.486124 -0.117967 0.0833333 2781.51
-0.486135 -0.117971 0 2850.68
-0.48963 -0.102482 0.0833333 2851.77
-0.489632 -0.102483 0 2862.58
-0.486132 -0.117971 0.0833333 2840.25
-0.486143 -0.117974 0 2910.32
-0.489638 -0.102485 0.0833333 2911.48
-0.489641 -0.102486 0 2922.55
-0.486141 -0.117974 0.0833333 2899.66
-0.486152 -0.117978 0 2970.67
-0.489647 -0.102488 0.0833333 2971.89
-0.489649 -0.102489 0 2983.21
-0.486149 -0.117977 0.0833333 2954.53
-0.486161 -0.117981 0 3031.73
-0.489656 -0.102491 0.0833333 3033.02
-0.489658 -0.102492 0 3044.6
-0.486158 -0.117981 0.0833333 3022.63
-0.48617 -0.117985 0 3062.45
-0.489665 -0.102494 0.0833333 3087.45
-0.489667 -0.102495 0 3103.86
-0.486167 -0.117985 0.0833333 3053.26
-0.492401 -0.0868236 0.0833333 369.435
-0.492404 -0.0868241 0 369.812
-0.492405 -0.0868248 0.0833333 400.177
-0.492408 -0.0868253 0 400.72
-0.492409 -0.086826 0.0833333 473.388
-0.492412 -0.0868264 0 474.274
-0.492414 -0.0868272 0.0833333 556.288
-0.492416 -0.0868276 0 557.5
-0.492418 -0.0868283 0.0833333 635.324
-0.49242 -0.0868288 0 636.821
-0.492422 -0.0868295 0.0833333 710.736
-0.492424 -0.08683 0 712.501
-0.492426 -0.0868307 0.0833333 782.802
-0.492428 -0.0868311 0 784.82
-0.49243 -0.0868319 0.0833333 851.971
-0.492432 -0.0868323 0 854.23
-0.492434 -0.0868331 0.0833333 918.628
-0.492437 -0.0868335 0 921.118
-0.492438 -0.0868343 0.0833333 983.111
-0.492441 -0.0868348 0 985.824
-0.492442 -0.0868355 0.0833333 1045.71
-0.492445 -0.086836 0 1048.64
-0.492447 -0.0868368 0.0833333 1106.68
-0.492449 -0.0868372 0 1109.82
-0.492451 -0.086838 0.0833333 1166.24
-0.492454 -0.0868385 0 1169.58
-0.492455 -0.0868393 0.0833333 1224.57
-0.492458 -0.0868397 0 1228.11
-0.49246 -0.0868406 0.0833333 1281.85
-0.492462 -0.086841 0 1285.59
-0.492464 -0.0868418 0.0833333 1338.22
-0.492467 -0.0868423 0 1342.15
-0.492469 -0.0868432 0.0833333 1393.82
-0.492471 -0.0868436 0 1397.94
-0.492473 -0.0868445 0.0833333 1448.75
-0.492476 -0.0868449 0 1453.06
-0.492478 -0.0868458 0.0833333 1503.14
-0.492481 -0.0868463 0 1507.63
-0.492483 -0.0868472 0.0833333 1557.06
-0.492485 -0.0868477 0 1561.75
-0.492488 -0.0868486 0.0833333 1610.62
-0.49249 -0.0868491 0 1615.49
-0.492493 -0.08685 0.0833333 1663.88
-0.492495 -0.0868505 0 1668.94
-0.492498 -0.0868515 0.0833333 1716.93
-0.4925 -0.0868519 0 1722.17
-0.492503 -0.086853 0.0833333 1769.83
-0.492505 -0.0868534 0 1775.25
-0.492508 -0.0868545 0.0833333 1822.65
-0.492511 -0.0868549 0 1828.25
-0.492513 -0.086856 0.0833333 1875.43
-0.492516 -0.0868565 0 1881.23
-0.492519 -0.0868576 0.0833333 1928.25
-0.492521 -0.086858 0 1934.23
-0.492524 -0.0868592 0.0833333 1981.15