TITLE="new_volume.tec"
VARIABLES = "X", "Y", "Z", "U"
ZONE N = 52416, E = 20095, DATAPACKING = POINT, ZONETYPE = FETETRAHEDRON
-0.0139397 1.17671 0.5 4075.79
-0.00550902 1.18848 0.478025 3190.41
-0.00717919 1.17607 0.459017 5428.97
-0.00580214 1.18638 0.431707 3474.81
-0.620224 0.11086 0.224525 12350.5
-0.580491 0.134033 0.166667 12351.8
-0.584116 0.113637 0.166667 12409.8
-0.623053 0.104664 0.147749 12360
-0.047022 1.14434 0.371708 5631.18
-0.0282842 1.15577 0.359442 5861.29
-0.0559425 1.12928 0.333429 5886.39
-0.0293838 1.1593 0.303995 5777.96
0 -0.726203 0.0833333 7852.9
-0.0188718 -0.721381 0.166667 7900.94
-0.0188718 -0.721381 0.0833333 7902.83
-0.0402908 -0.75265 0.148175 7993.11
-0.37095 0.891282 0.0983049 200
-0.31235 0.946345 0.102581 200
-0.323394 0.935355 0.0450769 200
-0.333564 0.939399 0.0756684 200
-0.307234 0.889981 0.125 200.157
-0.310698 0.884882 0.196375 225.612
-0.335076 0.849209 0.125 2281.51
-0.308753 0.883395 0.162829 533.619
-0.55738 0.407005 0.5 10870.3
-0.579607 0.392393 0.463907 10906.6
-0.587483 0.359351 0.5 11112
-0.580157 0.404234 0.5 10787.8
0 -0.726203 0.166667 7842.35
-0.0188718 -0.721381 0.25 7891.09
-0.0197048 -0.748551 0.20699 7925.07
-0.31133 0.921662 0.364652 200
-0.334985 0.88847 0.373337 200
-0.310908 0.916434 0.318941 200
-0.282186 0.952966 0.339011 200
-0.0672432 -0.782507 0.263221 8082.28
-0.025902 -0.78248 0.255447 7942.93
-0.0665253 -0.810947 0.17778 8013.87
-0.0276894 1.13119 0.079702 5925.31
-0.0663671 1.10401 0.0828831 6006.48
-0.0704064 1.09514 0 6027.93
-0.0627279 1.09804 0.0750045 6043.25
-0.241232 0.989218 0 200
-0.260214 0.971913 0.0833333 200
-0.260215 0.971913 0 200
-0.263323 0.960102 0 200
6.66134e-16 1.23668 0.5 199.998
-0.00775876 1.22797 0.465375 200.015
6.66134e-16 1.22336 0.5 199.362
-0.0120338 1.22254 0.5 200
-0.0563642 1.12011 0.453583 5879.36
-0.0689571 1.10535 0.5 5962.34
-0.0723039 1.10003 0.424097 5975.98
-0.0371886 1.13129 0.440625 5845.09
-0.217153 0.997279 0.446183 200.113
-0.225668 0.9804 0.5 224.768
-0.235399 0.972942 0.421311 199.887
-0.221353 0.985494 0.425085 201.456
0 -0.726203 0.25 7847.28
-0.0188718 -0.721381 0.333333 7866.86
-0.0297936 -0.746217 0.301934 7945.42
-0.246082 0.998092 0.250284 200
-0.239447 1.00199 0.208333 200
-0.238615 1.00887 0.176683 200
-0.184031 1.06744 0.208333 200
-0.114652 1.17129 0.444966 200
-0.114817 1.16816 0.375 200
-0.126709 1.14908 0.416667 200
-0.175743 1.11514 0.401313 200
0 -0.775927 0.198958 7861.4
-0.0376916 -0.716074 0.166667 8009.42
-0.0265826 -0.75784 0.0582924 7933.54
-0.0376916 -0.716074 0.0833333 7997.33
-0.0290879 -0.747423 0.457544 7928.62
-0.0188718 -0.721381 0.416667 7877.93
0 -0.726203 0.416667 7835.63
-0.0263956 -0.753267 0.377931 7935.68
-0.170183 1.05773 0.0833333 199.999
-0.179753 1.03879 0.0383416 200.014
-0.179981 1.03184 0.0833333 199.885
-0.191645 1.02367 0.0833333 200.029
-0.0108924 1.22135 0.374341 200
-0.010016 1.23057 0.407437 200
-2.22045e-16 1.23362 0.342179 200
-0.0147643 1.23089 0.34353 200
-0.285648 0.636533 0.171656 9349.43
-0.303632 0.579611 0.166667 9582.66
-0.347896 0.588737 0.166667 9720.76
-0.31368 0.60888 0.0780338 9516.65
-0.446214 0.70906 0.408595 290.038
-0.441062 0.712889 0.360799 2491.06
-0.451508 0.700066 0.324618 1221.64
-0.436158 0.725186 0.333333 211.759
-0.195953 1.05886 0.25 200
-0.206259 1.04823 0.169464 200
-0.168035 1.0894 0.199975 200
-0.0364017 0.967279 0.0422169 7182.64
-0.0713112 0.935314 0 7365.61
-0.0279334 0.94918 0 7288.38
-0.048981 0.935432 0.0712787 7374.74
-0.0293797 1.21245 0.377892 200
-0.0128188 1.22629 0.3125 200
-0.0502451 1.16546 0.416667 200.011
-0.0369167 1.17324 0.442949 199.803
-0.0439442 1.16918 0.354167 199.459
-0.0362676 1.18478 0.376697 200.034
-0.0284307 -0.822652 0.185227 7845.31
0 -0.726203 0.333333 7814.81
-0.038433 -0.835984 0.247553 7872.4
-0.0565007 1.19262 0.159062 200
-0.0383899 1.20537 0.208333 200
-0.0745489 1.16769 0.142575 200
-0.0446951 1.19369 0.133171 200
-0.445096 0.67804 0.0416667 8739.63
-0.436917 0.695319 0.0833333 8580.32
-0.435441 0.695333 0 8566.07
-0.480005 0.63018 0.0657672 8957.6
0 -0.825651 0.25 7795.31
-6.66134e-16 -0.814817 0.162942 7821.75
-0.560556 0.336904 0 11416.1
-0.57251 0.301615 0.0871483 11626.5
-0.593219 0.276029 0 11727.4
-0.556902 0.291013 0 11744.2
-0.548954 0.346133 0.0392087 11390.6
-0.53102 0.341851 0 11476.6
-0.531136 0.388239 0 11088.2
-0.0775791 -0.747411 0.166667 8217.37
-0.056444 -0.710281 0.0833333 8097.94
-0.0636384 -0.739701 0.0555589 8135.83
-0.0712701 1.13658 0 200.031
-0.0579552 1.15729 0.0651553 200.053
-0.0564386 1.16175 0 200
-0.0796917 1.13458 0 199.97
-0.580488 0.134032 0.25 12345.1
-0.613615 0.15527 0.188448 12243.3
-0.28848 0.669125 0 9074.72
-0.320987 0.681241 0.069304 9079.76
-0.339446 0.601103 0 9541.64
-0.27307 0.667692 0.0875734 9149.06
-0.136016 1.00135 0.0879955 6675.64
-0.0799514 1.05959 0.0885547 6334.96
-0.119475 0.998422 0.1611 6799.33
-0.0718334 1.03352 0.0929773 6591.31
-0.101693 1.16575 0.25 200
-0.0764986 1.18196 0.25 200
-0.106373 1.16142 0.167246 200
-0.0767291 1.19294 0.25 200
-0.611598 0.117339 0.0474701 12365.7
-0.617362 0.0910367 0 12397.3
-0.615221 0.140973 0 12279.2
-0.584123 0.113638 0 12389.3
-0.112141 -0.689996 0 8389.61
-0.117851 -0.715333 0.069958 8398.82
-0.0992771 -0.736068 0 8263.13
-0.0936843 -0.697241 0 8288.8
-0.0816877 1.13197 0.414328 199.888
-0.0950526 1.11055 0.404678 221.595
-0.104644 1.10823 0.378681 200.011
-0.0805015 1.13251 0.328235 199.054
-0.0376916 -0.716074 0.25 7999.86
-0.057468 -0.742435 0.255208 8106.56
-0.0188718 -0.721381 0.5 7860.81
-0.112141 -0.689994 0.333333 8366.99
-0.112141 -0.689995 0.25 8373.76
-0.093684 -0.69724 0.25 8265.05
-0.0994472 -0.729858 0.251464 8312.14
-0.0564439 -0.710281 0.166667 8091.93
-0.162226 1.04775 0.153944 198.797
-0.156548 1.04794 0.166667 247.334
-0.182264 1.02049 0.132812 823.375
-0.162352 1.04065 0.0762187 586.37
-0.17991 1.08867 0.5 200
-0.174097 1.0949 0.416667 200
-0.183616 1.07714 0.448616 200
-0.209304 1.05714 0.434518 200
-0.0751133 -0.704003 0.0833333 8182.5
-0.397457 0.78154 0.5 198.748
-0.392951 0.783712 0.456713 322.618
-0.404355 0.767008 0.421588 510.085
-0.39517 0.784636 0.412106 199.832
-0.130468 -0.68227 0 8514.62
-0.130468 -0.682269 0.0833333 8503.29
-0.0751133 -0.704003 0.166667 8180.42
-0.0936841 -0.69724 0.166667 8271.18
-0.622468 0.103598 0.313284 12364.1
-0.649632 0.0685304 0.245503 12353.3
-0.623725 0.0707888 0.247752 12436.4
-0.0532244 1.15978 0.5 200.041
-0.0614697 1.14926 0.458344 199.952
-0.269329 0.928173 0.0585017 1034.68
-0.280305 0.919202 0 337.859
-0.292415 0.89701 0 5008.46
-0.297906 0.893134 0.0504202 3281.51
-0.557441 0.469844 0.0745086 10321.7
-0.543733 0.497473 0.166667 10113.3
-0.526546 0.518639 0.102019 9980.84
-0.539666 0.51505 0.068775 9938.74
-0.39029 0.836164 0.321664 200
-0.375161 0.852866 0.375 200
-0.392149 0.827039 0.370655 200
-0.381052 0.844675 0.288301 200
-0.0564439 -0.710281 0.25 8084.88
-0.370636 0.855886 0.0844049 200
-0.342031 0.890372 0.130052 200
-0.370949 0.85058 0.0720776 200
-0.335518 0.899922 0.0474299 200
-0.482311 0.639786 0.142481 8848.9
-0.474608 0.653302 0.0571507 8854.69
-0.498122 0.614002 0.093025 8928.83
-0.486433 0.637416 0.0895477 8863.15
-0.00798987 1.16148 0.123392 5795.77
-0.00807069 1.17135 0.127188 5750.56
6.66134e-16 1.16522 0.0744405 5756.13
-0.00813902 1.16053 0.0267934 5746.02
-0.446479 0.696192 0.338884 8421.01
-0.463507 0.670338 0.276042 8581.7
-0.461146 0.669181 0.338006 8650.65
-0.474944 0.6513 0.363684 8713.19
-0.0628941 0.933113 0.409386 7403.09
-0.0333219 0.929049 0.35731 7440.96
-0.0458218 0.892514 0.430251 7621.84
-0.0757563 0.892525 0.344144 7649.26
-0.552004 -0.338429 0.409978 11432.5
-0.512179 -0.328418 0.416667 11474.7
-0.512182 -0.328419 0.333333 11476.6
-0.521438 -0.309928 0.416667 11599.9
-0.0773099 1.18212 0.5 200
-0.0442179 1.21193 0.456795 200
-0.032372 1.2226 0.5 200
-0.0563223 1.19325 0.5 200
-0.366854 0.748563 0.162967 8333.91
-0.356479 0.75859 0.0887179 8287.95
-0.382209 0.753029 0.0833333 8272.2
-0.363219 0.771404 0.166667 8130.31
0 1.17175 0.123952 5726.65
8.88178e-16 1.1737 0.0640825 5697.11
-0.0860992 1.16489 0.438171 200
-0.099105 1.15292 0.5 200
-0.0798863 1.16625 0.451922 200
-0.123122 1.07354 0.5 3083.66
-0.0927452 1.10671 0.446171 2130.21
-0.0809111 1.11635 0.5 2530.82
-0.117827 1.07295 0.5 5659.1
-0.148651 -0.674065 0 8627.19
-0.164165 -0.693749 0.0735259 8668.2
-0.14865 -0.674064 0.0833333 8597.52
-0.0920549 1.15076 0.5 200
-0.397925 0.784024 0.172515 200.03
-0.387613 0.799759 0.215064 200.107
-0.391676 0.787882 0.161045 205.46
-0.388884 0.796573 0.125453 200.11
-0.0525912 1.1097 0.151977 5963.93
-0.0179258 1.13495 0.151254 5902.32
-0.0936842 -0.697241 0.0833333 8278.2
-0.112141 -0.689995 0.166667 8381.33
-0.0177088 1.25691 0.430962 200
4.44089e-16 1.25544 0.476336 200
0 1.26329 0.458333 200
4.44089e-16 1.26209 0.5 200
-0.549873 0.470129 0.32931 10366.4
-0.553727 0.474105 0.432049 10278.1
-0.538332 0.506721 0.331012 10028.3
-0.566971 0.457716 0.358191 10418.8
6.66134e-16 1.16919 0.47442 5723.9
6.66134e-16 1.17889 0.486188 5559.23
8.88178e-16 1.17117 0.5 5693.57
-0.114013 1.24065 0.325642 200
-0.0773217 1.23136 0.331825 200
-0.127843 1.1997 0.324496 200
-0.112832 1.22132 0.248398 200
-0.584113 0.113637 0.25 12406.5
-0.0751132 -0.704002 0.25 8184.59
-0.58761 0.403057 0.25 10770.2
-0.569101 0.422309 0.337329 10681.5
-0.566086 0.430908 0.256757 10611.4
-0.0513602 1.18543 0 200
-0.0734904 1.1622 0.0745077 200
-0.0756697 1.16589 0 200
-0.0742942 1.16115 0 200
-0.0741666 1.20851 0.163822 200
-0.0618366 1.2151 0.255027 200
-0.0510899 1.22147 0.171508 200
-0.0482078 1.23737 0.192033 200
-0.282794 0.931974 0 200
-0.298289 0.915204 0 200
-0.286052 0.924346 0.0506981 200
-0.294787 0.921189 0.0918302 200
-0.0874701 1.14271 0.0833333 200
-0.0847409 1.14417 0 200
-0.0693852 1.1574 0.0586001 200
-0.254752 0.941175 0.25 3454.17
-0.28191 0.903525 0.210984 7014.37
-0.241363 0.952632 0.152966 5834.69
-0.235077 0.961029 0.266085 5113.37
-0.307138 0.941251 0.413156 200
-0.282073 0.969306 0.44853 200
-0.299777 0.945129 0.449744 200
-0.296303 0.950116 0.359728 200
-0.418215 0.764042 0.270833 200
-0.412489 0.766258 0.25 200.072
-0.421875 0.756142 0.166667 199.996
-0.410435 0.778232 0.192006 200.004
-0.268288 0.982966 0.405593 200
-0.277247 0.904419 0.340117 7099.6
-0.252148 0.926519 0.333333 7057.88
-0.317253 0.854709 0.42348 7259.53
-0.291188 0.884303 0.306475 7217.94
-0.300887 0.919378 0.164007 200
-0.310428 0.903948 0.125 200
-0.303154 0.918402 0.0906805 200
-0.2465 0.964399 0.296837 199.891
-0.239096 0.974171 0.380609 200.015
-0.233726 0.975675 0.33367 204.047
-0.235708 0.981698 0.300759 200.007
-0.451931 0.699824 0.208333 661.632
-0.45861 0.684617 0.25 6544.76
-0.441818 0.712741 0.243076 2132.06
-0.334684 -0.553242 0.25 9855.21
-0.349932 -0.539614 0.333333 9948.21
-0.349934 -0.539615 0.25 9945.56
-0.361371 -0.569041 0.3213 9858.2
-0.297792 0.898844 0.248105 447.824
-0.2859 0.907882 0.208333 2019.19
-0.318016 0.867996 0.174484 4159.89
-0.293359 0.894998 0.5 7005.53
-0.285876 0.904727 0.425151 5338.8
-0.304135 0.876445 0.416667 7236.45
-0.321077 0.863346 0.438417 6153.24
-0.3515 0.848339 0.0580122 200
-0.339637 0.861644 0 200.002
-0.341063 0.858832 0.118991 199.999
-0.348478 0.8443 0.0524369 199.788
-0.396973 0.781137 0.246652 200.748
-0.401511 0.770444 0.207564 1021.41
-0.406309 0.762837 0.295475 1259.06
-0.413171 0.757491 0.249014 294.306
-0.475752 0.669693 0.054502 199.924
-0.460668 0.689328 0.0773319 204.899
-0.466593 0.680887 0.121229 203.213
-0.475773 0.66381 0.0833333 199.506
-0.38954 0.856133 0.416667 200
-0.368909 0.877156 0.5 200
-0.35557 0.886684 0.430475 200
-0.348412 0.903864 0.444444 200
-0.0254459 1.18898 0.319352 200.518
-0.0127505 1.18502 0.310175 2171.64
-0.0282635 1.17287 0.28125 290.981
-0.0276856 1.18662 0.247756 199.754
-0.242371 0.961531 0.0530268 205.556
-0.260796 0.941579 0 264.789
-0.25491 0.950714 0.116469 201.105
-0.275842 0.987055 0 200
-0.249933 1.00971 0.0489778 200
-0.286849 0.966986 0 200
-0.246747 1.00835 0 200
-0.296948 0.923771 0.249728 200
-0.268086 0.952143 0.269167 200
-0.295114 0.921254 0.1875 200
-0.275581 0.948163 0.217009 200
-0.434707 0.72862 0.228241 200.57
-0.427069 0.735347 0.166667 500.708
-0.435558 0.723927 0.114583 229.884
-0.55975 -0.213894 0.0833333 12110.3
-0.590003 -0.217384 0.154315 12069.2
-0.592586 -0.201829 0.0625931 12111.9
-0.553187 -0.233531 0.0833333 12006.5
-0.0125197 1.17103 0.229167 5773.01
-0.0234778 1.16242 0.173431 5688.48
-0.0110154 1.17573 0.174829 5225.01
-0.41561 0.740155 0.0531602 8185.59
-0.420083 0.72962 0 8213.25
-0.385849 0.779743 0.0879867 7896.54
-0.423009 0.725003 0.0833333 8331.82
-0.0424443 1.15618 0.243014 1045.53
-0.0268272 1.16757 0.340155 3206.98
-0.0266444 1.16676 0.241858 3669.61
-0.152598 -0.706585 0.166667 8565.67
-0.208673 -0.683484 0.25 8820.6
-0.136308 -0.7382 0.25 8401.35
-0.166671 -0.665381 0.25 8692.32
-0.432275 0.749388 0.0369308 200
-0.447397 0.7287 0 200
-0.441355 0.733709 0.0535515 200
-0.434604 0.74914 0.091861 200
-0.433682 0.743513 0 200
-0.445914 0.726205 0 200
-0.444332 0.722796 0 200
-0.302573 0.941294 0.0480006 200
-0.294447 0.950401 0.11923 200
-0.304589 0.935123 0.0833333 200
-0.274364 0.970308 0.0550588 200
4.44089e-16 1.18932 0.490863 3408.81
1.33227e-15 1.18946 0.5 2822.49
4.44089e-16 1.1821 0.5 4989.67
-0.0453094 1.14368 0.139128 5249.21
-0.0971354 1.08625 0.166667 5968.98
-0.0491457 1.13384 0.0944012 5890.57
-0.0294183 1.14979 0.1875 5822.68
-0.33366 0.84286 0.333333 7365.59
-0.333661 0.842861 0.25 7358.63
-0.370154 0.793731 0.333333 7740.72
-0.362026 0.809052 0.25 7445.65
-0.456044 0.709657 0.0717807 200
-0.0528983 1.17461 0 200
-0.0506892 1.18142 0.0416667 200
-0.0781719 1.16918 0.0600755 200
-0.100499 1.14492 0 200
-0.103566 1.13587 0.0639181 200
-0.100499 1.14492 0.0833333 200
-0.42649 0.715172 0.217221 8347.8
-0.418803 0.721412 0.210378 8353.56
-0.404595 0.744562 0.166667 8229.62
-0.377976 0.778713 0.208333 7990.74
-0.100202 0.758854 0.405672 8262.27
-0.0595751 0.755615 0.451391 8111.64
-0.0470049 0.806921 0.402768 7974.6
-0.0829241 0.785471 0.5 8073.07
-0.528486 0.441512 0.0888885 10753.9
-0.507755 0.49489 0.1661 10297
-0.5148 0.458857 0.166667 10659.8
-0.460048 0.509052 0.123581 10423.5
-0.447602 0.727253 0.0973525 200
-0.317876 0.880822 0.416667 201.969
-0.338614 0.852739 0.5 201.975
-0.345455 0.840008 0.375 690.742
-0.331137 0.859449 0.43137 314.267
-0.0420424 0.870483 0.166667 7700.96
4.44089e-16 0.849482 0.241319 7717.13
6.66134e-16 0.827427 0.142904 7767.89
-2.22045e-16 0.881765 0.15158 7604.78
-0.0751131 -0.704002 0.333333 8168.93
-0.511633 0.576199 0.5 9385.88
-0.508175 0.585107 0.449894 9321.31
-0.477925 0.6317 0.5 9098.16
-0.482496 0.619471 0.454947 9147.6
6.66134e-16 -0.791291 0.353051 7836.46
4.44089e-16 -0.787583 0.432597 7838.79
-0.0633399 -0.778403 0.082191 8039.82
-0.222533 0.974305 0.0416667 3143.75
-0.212451 0.990487 0.0833333 263.222
-0.232679 0.968595 0.0553844 417.185
-0.234607 0.964866 0.124478 1295.9
-0.483448 0.625406 0.416667 8977.16
-0.331715 0.603023 0.25 9602.97
-0.303632 0.57961 0.25 9568.49
-0.319536 0.566841 0.25 9675.14
-0.319537 0.566842 0.166667 9692.66
-0.361735 0.818815 0.177083 1847.1
-0.334346 0.855015 0.187142 293.101
-0.360243 0.816831 0.170734 5104.51
-0.343038 0.843273 0.108081 964.678
-0.328228 0.914782 0.165561 200
-0.35317 0.882346 0.129663 200
-0.315457 0.925584 0.208333 200
-0.345227 0.890938 0.221473 200
-0.0349686 -0.751113 0 8002.92
-0.0376917 -0.716074 0 7995.52
-0.056444 -0.710281 0 8095.73
-0.141239 0.813445 0.0470667 8103.25
-0.115782 0.797593 0 8202.02
-0.181407 0.769 0.0833333 8339.95
-0.174133 0.781223 0 8379.64
-0.176652 1.09152 0.25387 200
-0.174098 1.0949 0.166667 200
-0.226798 1.04614 0.212207 200
-0.198211 1.07731 0.25 200
-0.148649 -0.674061 0.416667 8550.97
-0.130467 -0.682267 0.416667 8451.79
-0.125548 -0.711703 0.453057 8423.74
-0.116589 -0.716314 0.386054 8380.02
-0.534727 0.52556 0.166667 9850.11
-0.520527 0.547047 0.0833333 9724.72
-0.53459 0.53164 0.124799 9706.07
-0.628089 0.0538329 0.184575 12436.9
-0.65273 0.0814076 0.117213 12336.3
-0.659456 0.0123794 0.166667 12403.2
-0.406421 0.739927 0.264717 8230.79
-0.228373 1.05622 0.406265 200
-0.226972 1.04516 0.364169 200
-0.22209 1.05927 0.333333 200
-0.411513 0.532407 0.333333 10112.1
-0.394065 0.496727 0.416667 10330
-0.394066 0.496729 0.333333 10292.8
-0.379871 0.511558 0.416667 10221.7
-0.0936838 -0.697239 0.333333 8277.79
-0.0125933 1.18171 0.395833 3110.27
4.44089e-16 1.18285 0.340294 5428.51
4.44089e-16 1.19276 0.383448 1865.57
-0.116594 0.950852 0 7166.34
-0.0846594 0.97095 0.0931964 7114.93
-0.158276 0.944657 0.0833333 7160.37
-0.115134 0.906842 0.0829541 7562.05
-0.130468 -0.682269 0.166667 8486.38
-0.112141 -0.689996 0.0833333 8404
-0.280685 1.00882 0.448649 200
-0.32445 1.01909 0.5 200
-0.284515 1.04098 0.440713 200
-0.324407 1.00799 0.408194 200
-0.213941 1.00505 0.317329 200.002
-0.223349 0.997239 0.403051 200
-0.0734269 1.09985 0.347262 5972.63
-0.0296228 1.13123 0.340462 5867.45
-0.066613 1.10662 0.253566 5959.1
-0.0466555 1.12886 0.313788 5880.49
-0.16008 1.08437 0.125 200
-0.160079 1.08437 0.208333 200
-0.146415 1.09299 0.174065 200
-0.100499 1.14492 0.166667 200
-0.339362 0.859367 0.433801 199.995
-0.340574 0.85173 0.391806 199.973
-0.328107 0.870394 0.321868 200.008
-0.129236 1.1012 0 200
-0.105363 1.11718 0 200.001
-0.124143 1.10734 0.0999796 200
-0.175336 1.04047 0.439201 199.821
-0.20048 1.01348 0.5 199.774
-0.194296 1.02202 0.41098 200.009
-0.204343 1.00514 0.446921 199.124
-0.619267 -0.0224237 0.213342 12497.4
-0.592524 -0.0308983 0.25 12534.8
-0.592527 -0.0308984 0.166667 12523.4
-0.593154 -0.010188 0.25 12534.2
-0.10782 1.1381 0.26393 200
-0.124235 1.12455 0.199938 200
-0.0686684 -0.74523 0.329287 8156.73
-0.0758204 1.17132 0.208333 200
-0.0928313 1.15807 0.131812 200
-0.125313 1.12843 0.255787 200
-0.0807782 1.17167 0.309133 200
-0.08816 1.16435 0.217922 200
-0.129036 0.928732 0.168513 7358.72
-6.66134e-16 -0.77025 0.279879 7869.61
-0.317714 0.873969 0.248351 632.866
-0.336787 0.846871 0.200415 3331.7
-0.332984 0.854323 0.271466 1371.4
-0.136637 1.11071 0.291667 200
-0.404914 0.760279 0.338631 6342.93
-0.384126 0.786709 0.293243 6091.3
-0.405212 0.759946 0.253048 5796.69
-0.384904 0.790465 0.3125 1814.18
-0.325618 0.85248 0.163695 7154.59
-0.370156 0.793734 0.166667 7698.72
-0.370157 0.793735 0.0833333 7788.17
-0.342058 0.827594 0.125 7383.68
-0.625735 0.199676 0.155905 12054
-0.623763 0.224971 0.0905461 11911.6
-0.575851 0.258165 0.14473 11898.6
-0.590693 0.226967 0.0754596 12011.5
-0.0376915 -0.716073 0.5 7944.16
-0.0376915 -0.716073 0.416667 7991.64
-0.511396 0.589144 0 9028.01
-0.491448 0.621637 0.0480397 8956.74
-0.49587 0.610348 0 9010.44
-0.471347 0.654758 0 8774.07
-0.354717 0.689759 0.5 8935.67
-0.358241 0.725303 0.405202 8624.34
-0.382497 0.702193 0.5 8792.97
-0.338682 0.754491 0.5 8379.82
-0.235997 1.01852 0.4375 200
-0.223974 1.03671 0.5 200
-0.191471 1.06389 0.5 200
-0.150975 1.0712 0.423534 199.995
-0.146985 1.08334 0.375 200
-0.168947 1.05597 0.426612 199.999
-0.152555 1.07902 0.5 200
-0.275142 0.962969 0.5 200
-0.239321 1.00653 0.423875 200
-0.285498 0.949407 0.416741 200
-0.296646 0.940294 0.443014 200
-0.397048 0.759632 0.25 8004.92
-0.150082 1.06784 0.5 200.113
-0.640496 0.180208 0.416667 12051.4
-0.615266 0.231712 0.409143 11911.9
-0.634092 0.229486 0.449372 11815.5
-0.626853 0.232657 0.5 11875.6
-0.410341 0.770897 0.32565 200.005
-0.399104 0.784045 0.270833 200.023
-0.407813 0.765218 0.331135 203.291
-0.421001 0.749333 0.300712 199.655
-0.184517 -0.656226 0.166667 8806.82
-0.166672 -0.665381 0.166667 8694.65
-0.166672 -0.665382 0.0833333 8687.86
-0.0325478 0.776291 0 7933
-8.88178e-16 0.791838 0.0589835 7853.51
-0.0276983 0.797516 0.0670604 7880.8
4.44089e-16 0.769046 0.0537937 7892.78
-0.0494595 1.14473 0.166667 2958.27
-0.0625468 1.13653 0.158557 1080.4
-0.0520533 1.1447 0.0632259 1799.51
-0.0772452 1.11825 0.0965983 3924.27
-0.0261492 -0.891507 0.427743 7738.83
-0.0685436 -0.824391 0.415654 7969.12
-0.0307675 -0.827445 0.412396 7846.99
-0.0393141 -0.879348 0.3477 7763.2
-0.0419409 1.22429 0.251876 200
-0.0129757 1.24357 0.291667 200
-0.0113405 1.23899 0.231547 200
-0.0129414 1.24949 0.25 200
-2.22045e-16 1.25343 0.252309 200
4.44089e-16 1.24535 0.272385 200
-0.600788 0.358758 0.5 11045.6
-0.607683 0.343148 0.423112 11231.9
-0.615402 0.310816 0.5 11382.3
-0.244645 1.05992 0.0769573 200
-0.29216 1.00241 0 200
-0.255056 1.0591 0 200
-0.238425 1.04509 0 200
-0.64418 0.197552 0.5 11947.5
-0.592568 0.407968 0.333333 10698.6
-0.582031 0.427926 0.418938 10576.7
-0.577065 0.44475 0.375 10398.3
-0.589845 0.419872 0.425845 10554.9
-0.471346 0.654757 0.0833333 8742.6
-0.47826 0.638834 0.0416212 8860.63
-0.446338 0.692037 0.0460806 8573.66
-0.420124 0.695584 0.0814102 8653.95
-0.453275 0.660762 0 8745.61
-0.466067 0.627469 0 9033.07
-0.451432 0.661431 0.08683 8876.02
-0.445221 0.710964 0.137414 582.273
-0.447118 0.711875 0.0791845 199.459
-0.454134 0.70247 0.167331 198.999
-0.442161 0.720209 0.174072 199.867
-0.421825 0.773942 0.364583 200
-0.41018 0.791767 0.26609 200
-0.426105 0.767336 0.291667 200
-0.435583 0.757041 0.333333 200
-0.400184 0.806851 0.375 200
-0.137893 1.0968 0.046327 200
-0.14805 1.09272 0 200
-0.14805 1.09272 0.0833333 200
-0.543731 0.497472 0.25 10082.9
-0.564561 0.460654 0.270287 10383.5
-0.14865 -0.674063 0.166667 8580.77
-0.0324063 0.993931 0.252822 6982.34
-0.0481351 0.96284 0.32693 7225.4
-0.044198 0.948001 0.25 7350.11
-2.22045e-16 0.963753 0.239954 7228.96
-0.462058 -0.462554 0.412923 10618.4
-0.481516 -0.430634 0.375 10855.9
-0.433781 -0.449512 0.416667 10677.8
-0.450237 -0.476799 0.333333 10596.9
-0.0982203 1.09049 0.44505 5815.79
-0.0736008 1.11669 0.5 5524.17
-0.130468 -0.682268 0.25 8469.9
4.44089e-16 1.11947 0.0615371 6064.95
-0.0283485 1.08516 0.107434 6289.95
-0.036032 1.0891 0.048035 6185.4
6.66134e-16 1.07705 0.0752506 6420.75
-0.512243 0.579265 0.375 9339.27
-0.507739 0.577307 0.33578 9503.26
-0.504829 0.589977 0.25 9293.79
-0.485863 0.614931 0.296718 9168.25
-0.379478 0.823748 0.5 200
-0.361932 0.841018 0.5 200
-0.368859 0.829692 0.437543 200
-0.357377 0.850438 0.455375 200
-0.0316466 1.07492 0 6418.61
1.55431e-15 1.09964 0 6252.44
-0.0936837 -0.697239 0.416667 8287.48
-0.00929784 1.23004 0.10398 200
-0.0101115 1.24075 0.0509114 200
-0.0180715 1.22946 0.156095 200
-4.44089e-16 1.24146 0.123258 200
-0.401518 0.779398 0.369368 199.997
-0.0299472 0.751744 0.104105 7972.37
-0.0276728 0.797909 0.134885 7904.53
6.66134e-16 0.779643 0.14482 7854.21
-0.216864 1.0132 0 200
-0.216546 1.01205 0.0643551 200
-0.21498 1.00749 0 200
-0.19434 1.03151 0.055163 200
-0.393326 0.786064 0.333333 198.437
-0.251085 0.864394 0.154131 7632.46
-0.295416 0.850861 0.0601104 7599.56
-0.201472 0.883677 0.0885335 7611.82
-0.262258 0.82845 0.0741349 7944.22
-0.329622 0.936801 0.300011 200
-0.320269 0.93978 0.243669 200
-0.338821 0.913739 0.25 200
-0.381925 0.88362 0.263204 200
-0.210269 -0.681232 0.161673 8908.76
-0.219618 -0.63651 0.166667 9009.91
-0.236843 -0.625956 0.25 9108.33
-0.314489 -0.658392 0.341796 9187.03
-0.302509 -0.652857 0.440122 9224.74
-0.281146 -0.645019 0.343992 9228.19
-0.329287 -0.596878 0.333333 9570.35
-0.323278 0.767331 0.0689846 8321.32
-0.368442 0.719839 0.0789576 8590.48
-0.340245 0.755045 0 8359.47
-0.382879 0.782921 0.332531 7794.76
-0.389503 0.774702 0.25 7864.02
-0.423005 0.724999 0.333333 8248.18
-0.415741 0.740118 0.333333 8137.92
-0.381645 0.790068 0.375 5555.07
-0.0553614 1.2218 0.0472119 200
-0.013367 1.26439 0.0548821 200
-0.0361037 1.25128 0 200
-0.0506028 1.23483 0.08718 200
-0.443133 0.643166 0.5 9181.86
-0.446263 0.657484 0.458333 9030.77
-0.480105 0.592953 0.5 9454.54
-0.448659 0.659869 0.5 8941.17
-0.289539 0.936203 0.257121 200
-0.30135 0.920286 0.333333 200
-0.277178 0.949335 0.314591 200
-0.145786 -0.70068 0.291631 8563.86
-0.318083 0.930781 0 200
-0.296251 0.957919 0.0883552 200
-0.257439 0.956299 0.333333 199.94
-0.255847 0.948696 0.375 201.348
-0.506547 -0.373911 0.473848 11263
-0.536765 -0.328035 0.461991 11527.3
-0.50241 -0.346635 0.5 11381.5
-0.516911 -0.370378 0.405477 11222.9
-0.422848 0.763559 0.418156 200
-0.418861 0.773069 0.399374 200
-0.417638 0.769323 0.323446 200
-0.436635 0.747562 0.3125 200
-0.0619109 1.2006 0.302759 200
-0.0558226 1.19567 0.266952 200
-0.0488971 1.20947 0.235486 200
-0.0589544 1.1846 0 200
-0.0633701 1.1792 0.0833333 200
-0.410184 0.778565 0.379813 200
-0.48382 0.654517 0.300332 199.991
-0.472652 0.676273 0.376651 199.689
-0.470635 0.677808 0.303223 199.485
-0.483811 0.661622 0.320661 199.993
-0.456196 -0.465872 0.0572213 10597.7
-0.421222 -0.500323 0.151268 10412.9
-0.420792 -0.465482 0.0833333 10571.1
-0.465671 -0.468607 0.143608 10688.4
-0.170183 1.05773 0.25 199.992
-0.191644 1.02367 0.333333 198.986
-0.197013 1.01895 0.251878 200.419
-0.174969 1.03901 0.273044 199.671
-0.14865 -0.674063 0.25 8565.34
-0.411562 0.695853 0.416667 8765.04
-0.418898 0.658842 0.44934 9023.64
-0.429085 0.676807 0.416667 8853.18
-0.412733 0.668252 0.375 9006.22
-0.202172 -0.646603 0 8955.85
-0.211821 -0.66411 0.0395278 8940.39
-0.184518 -0.656228 0 8848.36
-0.202172 -0.646602 0.0833333 8941.24
-0.162816 1.11343 0.125 200
-0.140448 1.12788 0.0552745 200
-0.112988 1.15323 0.0924045 200
-0.145572 1.12081 0.126835 200
-0.427905 0.750004 0.0961246 200
-0.0125197 1.17634 0.291667 5437.99
-0.00733441 1.17652 0.367035 5698.7
-0.0174076 1.16991 0.381662 5206.38
0 1.18383 0.482765 5151.99
0 1.19275 0.474232 1864.31
-0.32212 0.920432 0.5 200
-0.33125 0.904401 0.448921 200
-0.296497 0.944937 0.5 200
-0.168363 -0.699316 0 8618.1
-0.41172 0.782918 0.334263 200
-0.326327 0.916048 0.0833333 200
-0.603468 0.316958 0.185416 11386.1
-0.595358 0.353202 0.0883299 11191.9
-0.606751 0.339808 0.174142 11239
-0.575147 0.358298 0.154425 11251
-0.431547 0.756945 0.43179 200
-0.311976 0.863068 0.236419 7205.27
-0.345586 0.820242 0.23348 7518.99
-0.0406936 1.14967 0.5 5298.95
-0.0428529 1.14099 0.440172 5807.53
-0.0217636 1.16275 0.5 5652.53
-0.0461892 1.13762 0.5 5814.95
-0.215401 1.05932 0.446554 200
-0.313101 0.860906 0.166667 7210.38
-0.0535245 1.19947 0.0486415 200
-0.0418121 1.20074 0.0582523 200
-0.0287407 1.21244 0.111736 200
-0.058489 1.18915 0.0977589 200
-0.0354683 0.772886 0.340092 7984.81
-0.0194007 0.757854 0.291667 7909.13
6.66134e-16 0.812144 0.318383 7842.32
4.44089e-16 0.770022 0.355145 7842.73
-0.356167 0.847953 0.196356 200
-0.341987 0.865925 0.161013 200
-0.358901 0.844677 0.0959505 200
-0.356594 0.85316 0.102644 200
-0.0189013 0.721412 0.333333 7879.19
-0.0189014 0.721412 0.25 7863.67
0 0.726203 0.333333 7826.89
-0.319107 -0.566449 0.25 9742.82
-0.334683 -0.553241 0.333333 9837.37
-0.287195 0.896968 0.125394 7000.7
-0.0100297 1.25259 0.111004 200
-0.00975992 1.25388 0.0431814 200
0 1.26714 0.0870842 200
0 1.25552 0.0820151 200
-0.369334 0.833578 0.208333 200
-0.0265364 1.16848 0.5 2779.96
-0.019567 1.16744 0.455336 5313.19
-0.355928 0.854835 0.182006 200
-0.379482 0.823753 0.166667 200
-0.0421188 1.15095 0.427423 3987.41
-0.014751 1.2088 0.0434711 200.198
-0.0269015 1.19149 0 199.003
-0.0132715 1.19922 0 203.721
-0.0211107 1.1909 0.0704237 312.615
-0.361489 0.840902 0.281338 200
-0.368702 0.826103 0.250595 200.002
-0.357453 0.836804 0.25 199.985
-0.166672 -0.665383 0 8727.07
-0.368632 0.827337 0.147121 200.002
-0.499385 0.604439 0.5 9090.97
-0.455448 0.672171 0.5 8658.92
-0.477393 0.640079 0.416667 8889.33
-0.219617 -0.636508 0.333333 8985.65
-0.219618 -0.636509 0.25 9007.48
-0.236975 -0.661678 0.331817 9024.11
-0.634238 0.0724874 0.0803088 12396.7
-0.62347 0.145479 0.0864726 12249.8
-0.656991 0.0901351 0.0491777 12305.3
-0.537147 0.45915 0.319825 10522.4
-0.527962 0.496151 0.413854 10225.5
-0.516538 0.523466 0.322517 10017
-0.263637 0.948162 0 199.998
-0.286307 0.917014 0.0565728 199.151
-0.265118 0.946612 0.0839868 200.1
-0.221663 0.714594 0.172773 8739.86
-0.223344 0.670241 0.168658 9003.26
-0.175653 0.69875 0.161256 8729.3
-0.190489 0.720778 0.255363 8681.29
-0.350176 0.878117 0 200
-0.372817 0.852348 0 200
-0.389256 0.827222 0 200
-0.281432 0.925348 0 200.002
-0.441042 0.712939 0.5 2638.81
-0.432326 0.722841 0.5 5665.16
-0.456906 0.684516 0.461997 7766.54
-0.436909 0.718764 0.447471 1755.27
-0.184517 -0.656227 0.0833333 8835.88
-0.587139 0.0931423 0.25 12433.2
-0.347339 0.87825 0.410766 200
-0.353111 0.864669 0.439812 200
-0.375734 0.836641 0.402107 200
-0.580896 0.43256 0.459867 10564.5
-0.559204 0.482766 0.419487 10118.8
-0.0763801 1.12874 0.344144 345.374
-0.33734 -0.585568 0.230234 9716.25
-0.0128964 1.15869 0.463063 5755.21
-0.0725755 1.13196 0.408679 276.39
-0.10076 1.10457 0.317655 571.477
-0.276626 0.923775 0.0833333 222.038
-0.256573 0.952024 0.046616 199.792
-0.109634 1.08824 0.375 3133.38
-0.388765 0.538613 0.0371676 10101.9
-0.407881 0.481517 0 10364.7
-0.39407 0.496733 0.0833333 10307.8
-0.430663 0.488183 0.0604206 10446.2
-0.0544926 1.17959 0.141464 200
-0.0383229 1.18508 0.128551 200
-0.0536822 1.17218 0.0857559 200
-0.0357107 1.19011 0.0710671 200.004
-0.391133 0.780335 0.416667 2998.92
-0.0738794 1.1201 0.25 4147.49
-0.0477544 1.14616 0.292222 4385.91
-0.0768834 1.11212 0.29196 5933.12
-0.0623926 1.12661 0.219136 5537.32
-0.193765 1.04099 0.25 200
-0.193765 1.04099 0.166667 200
-0.0333354 -0.811023 0.048764 7837.76
-0.0261087 -0.801994 0.107175 7873.8
-0.0168127 -0.858509 0.0775687 7679.17
6.66134e-16 -0.836303 0.085071 7709.86
-0.237609 0.989622 0.25 200
-0.261526 0.951546 0.249865 200.032
-0.14865 -0.674062 0.333333 8573.1
-0.377921 0.836892 0.0467579 200
-0.405966 0.802846 0.0877836 200
-0.123201 -0.748 0.089165 8345
-0.260212 0.971909 0.416667 200
-0.242437 0.987849 0.36424 200
-0.269875 0.955215 0.375 200
-0.255026 0.977394 0.330137 200
-0.409021 0.76597 0.15625 199.147
-0.416333 0.751578 0.183459 206.758
-0.251924 0.94344 0.5 3936.91
-0.232536 0.968499 0.448256 1029.01
-0.257344 0.938167 0.405478 4217.08
-0.243957 0.957702 0.439626 386.788
-0.0963604 0.867219 0 7711.07
-0.041208 0.907056 0.084967 7536.51